3312.242,SSURF,N,Executing commands in pdoscmds.bat
Executing resend_dive /c 314 1
3320.742,HCF8,N,sg0314kz.x skipping fragment 0
3322.242,HCF8,N,'sg0314kz.x01' opened
3322.467,HCF8,N,'sg0314kz.x01' has 4096 bytes
Succeeded in 14.61 secs
3327.167,SSURF,N,finished commands
3327.217,SSYS,N,Changing capture file
