3244.729,SSURF,N,Executing commands in pdoscmds.bat
Executing resend_dive /c 99 0
3254.079,HCF8,N,'sg0099kz.x00' opened
3254.304,HCF8,N,'sg0099kz.x00' has 4096 bytes
Succeeded in 13.66 secs
3258.654,SSURF,N,finished commands
3258.704,SSYS,N,Changing capture file
