3566.029,SSURF,N,Executing commands in pdoscmds.bat
Executing resend_dive /c 160 2
3574.154,HCF8,N,sg0160kz.x skipping fragment 0
3574.229,HCF8,N,sg0160kz.x skipping fragment 1
3575.729,HCF8,N,'sg0160kz.x02' opened
3575.954,HCF8,N,'sg0160kz.x02' has 4096 bytes
Succeeded in 14.13 secs
Executing resend_dive /d 174 0
3589.754,HCF8,N,'sg0174dz.x00' opened
3590.029,HCF8,N,'sg0174dz.x00' has 4096 bytes
Succeeded in 13.85 secs
3594.429,SSURF,N,finished commands
3594.479,SSYS,N,Changing capture file
