26218.666,SSURF,N,Executing commands in pdoscmds.bat
Executing resend_dive /d 298 0
26229.866,HCF8,N,'sg0298dz.x00' opened
26230.266,HCF8,N,'sg0298dz.x00' has 4096 bytes
Succeeded in 16.35 secs
26235.966,SSURF,N,finished commands
26236.016,SSYS,N,Changing capture file
