16874.141,SSURF,N,Executing commands in pdoscmds.bat
Executing resend_dive /d 17 1
16882.066,HCF8,N,sg0017dz.x skipping fragment 0
16883.591,HCF8,N,'sg0017dz.x01' opened
16883.916,HCF8,N,'sg0017dz.x01' has 4096 bytes
Succeeded in 13.91 secs
16888.466,SSURF,N,finished commands
16888.516,SSYS,N,Changing capture file
