27652.478,SSURF,N,Executing commands in pdoscmds.bat
Executing resend_dive /d 220 2
27661.628,HCF8,N,sg0220dz.x skipping fragment 0
27661.703,HCF8,N,sg0220dz.x skipping fragment 1
27663.428,HCF8,N,'sg0220dz.x02' opened
27663.853,HCF8,N,'sg0220dz.x02' has 4096 bytes
Succeeded in 16.01 secs
27669.303,SSURF,N,finished commands
27669.353,SSYS,N,Changing capture file
