23772.021,SSURF,N,Executing commands in pdoscmds.bat
Executing resend_dive /l 575 0
23784.871,HCF8,N,'sg0575lz.x00' opened
23785.296,HCF8,N,'sg0575lz.x00' has 4096 bytes
Succeeded in 18.59 secs
23792.021,SSURF,N,finished commands
23792.071,SSYS,N,Changing capture file
