21438.757,SSURF,N,Executing commands in pdoscmds.bat
Executing resend_dive /d 29 4
21446.807,HCF8,N,sg0029dz.x skipping fragment 0
21446.907,HCF8,N,sg0029dz.x skipping fragment 1
21446.982,HCF8,N,sg0029dz.x skipping fragment 2
21447.057,HCF8,N,sg0029dz.x skipping fragment 3
21448.607,HCF8,N,'sg0029dz.x04' opened
21448.932,HCF8,N,'sg0029dz.x04' has 4096 bytes
Succeeded in 14.40 secs
21453.607,SSURF,N,finished commands
21453.657,SSYS,N,Changing capture file
