21595.387,SSURF,N,Executing commands in pdoscmds.bat
Executing resend_dive /d 155 1
21604.137,HCF8,N,sg0155dz.x skipping fragment 0
21605.787,HCF8,N,'sg0155dz.x01' opened
21606.112,HCF8,N,'sg0155dz.x01' has 4096 bytes
Succeeded in 15.22 secs
21611.312,SSURF,N,finished commands
21611.362,SSYS,N,Changing capture file
