22523.598,SSURF,N,Executing commands in pdoscmds.bat
Executing resend_dive /l 417 0
22535.448,HCF8,N,'sg0417lz.x00' opened
22535.848,HCF8,N,'sg0417lz.x00' has 4096 bytes
Succeeded in 17.17 secs
22541.898,SSURF,N,finished commands
22541.973,SSYS,N,Changing capture file
