23566.012,SSURF,N,Executing commands in pdoscmds.bat
Executing resend_dive /l 503 0
23578.487,HCF8,N,'sg0503lz.x00' opened
23578.912,HCF8,N,'sg0503lz.x00' has 4096 bytes
Succeeded in 18.03 secs
Executing resend_dive /l 512 1
23594.812,HCF8,N,sg0512lz.x skipping fragment 0
23596.787,HCF8,N,'sg0512lz.x01' opened
23597.212,HCF8,N,'sg0512lz.x01' has 4096 bytes
Succeeded in 18.09 secs
23603.562,SSURF,N,finished commands
23603.612,SSYS,N,Changing capture file
