21116.941,SSURF,N,Executing commands in pdoscmds.bat
Executing resend_dive /d 30 2
21125.041,HCF8,N,sg0030dz.x skipping fragment 0
21125.116,HCF8,N,sg0030dz.x skipping fragment 1
21126.666,HCF8,N,'sg0030dz.x02' opened
21126.991,HCF8,N,'sg0030dz.x02' has 4096 bytes
Succeeded in 14.29 secs
21131.716,SSURF,N,finished commands
21131.766,SSYS,N,Changing capture file
