2946.780,SSURF,N,Executing commands in pdoscmds.bat
Executing 'target NORTH_175'...
2949.798,SNAV,N,      Target     Latitude  Longitude    Heading Radius Depth Finish Timeout Next target Escp target
2949.961,SNAV,N,  =>  NORTH_175  4750.000  -12224.800  -1.0    200.0m    0  -1  0.0 MID_175 none
2950.103,SNAV,N,      MID_175    4746.000  -12224.600  -1.0    300.0m    0  -1  0.0 SOUTH_175 none
2950.247,SNAV,N,      SOUTH_175  4742.000  -12225.600  -1.0    200.0m    0  -1  0.0 MID_175 none
Succeeded in 3.44 secs
2950.478,SSURF,N,finished commands
2950.532,SSYS,N,Changing capture file
