3721.136,SSURF,N,Executing commands in pdoscmds.bat
Executing resend_dive /l 223 0
3730.636,HCF8,N,'sg0223lz.x00' opened
3730.836,HCF8,N,'sg0223lz.x00' has 3684 bytes
Succeeded in 13.75 secs
Executing resend_dive /d 229 0
3744.636,HCF8,N,'sg0229dz.x00' opened
3744.861,HCF8,N,'sg0229dz.x00' has 4096 bytes
Succeeded in 14.00 secs
3749.311,SSURF,N,finished commands
3749.361,SSYS,N,Changing capture file
