3362.371,SSURF,N,Executing commands in pdoscmds.bat
Executing resend_dive /c 10 1
3369.946,HCF8,N,sg0010kz.x skipping fragment 0
3371.446,HCF8,N,'sg0010kz.x01' opened
3371.671,HCF8,N,'sg0010kz.x01' has 4096 bytes
Succeeded in 13.29 secs
3375.921,SSURF,N,finished commands
3375.971,SSYS,N,Changing capture file
