1808.144,SSURF,N,Executing commands in pdoscmds.bat
Executing 'resend_dive /d 13 0'...
1809.512,HCF8,N,file 'sg0013dz.x00' opened...
1809.733,HCF8,N,file 'sg0013dz.x00' has 4096 bytes, closed...
Succeeded in 2.20 secs
1810.578,SSURF,N,finished commands
1810.632,SSYS,N,Changing capture file
