1971.482,SSURF,N,Executing commands in pdoscmds.bat
Executing 'target WEST_175'...
1975.088,SNAV,N,      Target     Latitude  Longitude    Heading Radius Depth Finish Timeout Next target Escp target
1975.252,SNAV,N,  =>  WEST_175   4750.700  -12226.500  -1.0    200.0m    0  -1  0.0 WEST_175 none
1975.395,SNAV,N,      EAST_175   4750.700  -12222.000  -1.0    200.0m    0  -1  0.0 WEST_175 none
Succeeded in 3.90 secs
1975.605,SSURF,N,finished commands
1975.659,SSYS,N,Changing capture file
