4533.067,SSURF,N,Executing commands in pdoscmds.bat
Executing 'target EAST_175'...
4536.666,SNAV,N,      Target     Latitude  Longitude    Heading Radius Depth Finish Timeout Next target Escp target
4536.831,SNAV,N,  =>  EAST_175   4750.700  -12222.000  -1.0    200.0m    0  -1  0.0 WEST_175 none
4536.973,SNAV,N,      WEST_175   4750.700  -12226.500  -1.0    200.0m    0  -1  0.0 EAST_175 none
Succeeded in 3.89 secs
4537.196,SSURF,N,finished commands
4537.250,SSYS,N,Changing capture file
