3169.829,SSURF,N,Executing commands in pdoscmds.bat
Executing target EAST_194 400
3174.354,SNAV,N,      Target     Latitude  Longitude    Heading Radius Depth Finish Timeout Next target Escp target
3174.529,SNAV,N,  =>  EAST_194   4751.800  -12220.700  -1.0    400.0m    0 180  0.0 WEST_194 none
3174.679,SNAV,N,      WEST_194   4750.700  -12229.100  -1.0    400.0m    0   0  0.0 EAST_194 none
Succeeded in 4.79 secs
3174.879,SSURF,N,finished commands
3174.929,SSYS,N,Changing capture file
