2679.375,SSURF,N,Executing commands in pdoscmds.bat
Executing resend_dive /c 48 2
2687.100,HCF8,N,sg0048kz.x skipping fragment 0
2687.175,HCF8,N,sg0048kz.x skipping fragment 1
2688.675,HCF8,N,'sg0048kz.x02' opened
2688.875,HCF8,N,'sg0048kz.x02' has 4096 bytes
Succeeded in 13.48 secs
2693.125,SSURF,N,finished commands
2693.175,SSYS,N,Changing capture file
