2230.085,SSURF,N,Executing commands in pdoscmds.bat
Executing resend_dive /c 251 1
2238.460,HCF8,N,sg0251kz.x skipping fragment 0
2239.960,HCF8,N,'sg0251kz.x01' opened
2240.185,HCF8,N,'sg0251kz.x01' has 4096 bytes
Succeeded in 14.51 secs
2244.910,SSURF,N,finished commands
2244.960,SSYS,N,Changing capture file
