3503.447,SSURF,N,Executing commands in pdoscmds.bat
Executing resend_dive /c 135 2
3511.422,HCF8,N,sg0135kz.x skipping fragment 0
3511.497,HCF8,N,sg0135kz.x skipping fragment 1
3512.997,HCF8,N,'sg0135kz.x02' opened
3513.197,HCF8,N,'sg0135kz.x02' has 4096 bytes
Succeeded in 13.88 secs
3517.597,SSURF,N,finished commands
3517.647,SSYS,N,Changing capture file
