2931.244,SSURF,N,Executing commands in pdoscmds.bat
Executing target EAST_194
2935.769,SNAV,N,      Target     Latitude  Longitude    Heading Radius Depth Finish Timeout Next target Escp target
2935.944,SNAV,N,  =>  EAST_194   4751.800  -12220.700  -1.0    400.0m    0   0  0.0 WEST_194 none
2936.069,SNAV,N,      WEST_194   4750.700  -12229.100  -1.0    400.0m    0   0  0.0 EAST_194 none
Succeeded in 4.79 secs
2936.294,SSURF,N,finished commands
2936.344,SSYS,N,Changing capture file
