3105.764,SSURF,N,Executing commands in pdoscmds.bat
Executing target EAST_194
3110.339,SNAV,N,      Target     Latitude  Longitude    Heading Radius Depth Finish Timeout Next target Escp target
3110.489,SNAV,N,  =>  EAST_194   4750.700  -12222.000  -1.0    400.0m    0  -1  0.0 WEST_194 none
3110.639,SNAV,N,      WEST_194   4750.700  -12226.500  -1.0    400.0m    0  -1  0.0 EAST_194 none
Succeeded in 4.85 secs
3110.864,SSURF,N,finished commands
3110.914,SSYS,N,Changing capture file
