3685.838,SSURF,N,Executing commands in pdoscmds.bat
Executing 'resend_dive /c 338 3'...
3691.826,HCF8,N,sg0338kz.x skipping fragment 0
3691.913,HCF8,N,sg0338kz.x skipping fragment 1
3692.001,HCF8,N,sg0338kz.x skipping fragment 2
3692.868,HCF8,N,file 'sg0338kz.x03' opened...
3693.335,HCF8,N,file 'sg0338kz.x03' has 4096 bytes, closed...
Succeeded in 10.37 secs
3696.458,SSURF,N,finished commands
3696.512,SSYS,N,Changing capture file
