3367.399,SSURF,N,Executing commands in pdoscmds.bat
Executing 'dir BATHYMAP.*'...
BATHYMAP.006         54653
BATHYMAP.007         14815
BATHYMAP.004         48896
BATHYMAP.003         26752
BATHYMAP.002         38272
BATHYMAP.009         35056
BATHYMAP.010         38194
BATHYMAP.011         42350
BATHYMAP.012         29416
BATHYMAP.008         35584
363988 bytes used; 10 files
Succeeded in 1.30 secs
3368.943,SSURF,N,finished commands
3368.998,SSYS,N,Changing capture file
