4348.268,SSURF,N,Executing commands in pdoscmds.bat
Executing 'target SOUTH_175'...
4351.065,SNAV,N,      Target     Latitude  Longitude    Heading Radius Depth Finish Timeout Next target Escp target
4351.229,SNAV,N,      NORTH_175  4750.320  -12225.910  -1.0    200.0m    0  -1  0.0 SOUTH_175 none
4351.373,SNAV,N,      SOUTH_175  4742.840  -12225.690  -1.0    200.0m    0  -1  0.0 SOUTH_175 none
4351.499,SNAV,N,Heading of 225.0 specified - targets ignored
Succeeded in 3.16 secs
4351.671,SSURF,N,finished commands
4351.726,SSYS,N,Changing capture file
