3587.296,SSURF,N,Executing commands in pdoscmds.bat
Executing 'resend_dive /d 405 1'...
3593.164,HCF8,N,sg0405dz.x skipping fragment 0
3594.314,HCF8,N,file 'sg0405dz.x01' opened...
3594.806,HCF8,N,file 'sg0405dz.x01' has 4096 bytes, closed...
Succeeded in 10.65 secs
3598.247,SSURF,N,finished commands
3598.301,SSYS,N,Changing capture file
