394516195.171,SSURF,N,Executing commands in pdoscmds.bat
Executing 'EAST_175'...
Succeeded in 0.36 secs
394516195.774,SSURF,N,finished commands
394516195.834,SSYS,N,Changing capture file
