2516.952,SSURF,N,Executing commands in pdoscmds.bat
Executing 'resend_dive /c 338 3'...
2522.358,HCF8,N,sg0338kz.x skipping fragment 0
2522.446,HCF8,N,sg0338kz.x skipping fragment 1
2522.533,HCF8,N,sg0338kz.x skipping fragment 2
2523.401,HCF8,N,file 'sg0338kz.x03' opened...
2523.837,HCF8,N,file 'sg0338kz.x03' has 4096 bytes, closed...
Succeeded in 9.77 secs
2526.966,SSURF,N,finished commands
2527.020,SSYS,N,Changing capture file
