2961.581,SSURF,N,Executing commands in pdoscmds.bat
Executing 'resend_dive /d 10 0'...
2963.506,HCF8,N,file 'sg0010dz.x00' opened...
2963.731,HCF8,N,file 'sg0010dz.x00' has 1821 bytes, closed...
Succeeded in 2.94 secs
2964.781,SSURF,N,finished commands
2964.831,SSYS,N,Changing capture file
