1651.271,SSURF,N,Executing commands in pdoscmds.bat
Executing 'ren tcm2mat.174 tcm2mat.old'...
Succeeded in 0.84 secs
Executing 'xr tcm2mat.174'...
Receiving tcm2mat.174...
1654.046,SSURF,N,Sending cmd lsx -k -t150 tcm2mat.174
1658.196,SSURF,N,Receiving tcm2mat.174...
1659.346,SSURF,N,SOH/STX: 0x1 received (1), secSize= 128...
1660.871,SSURF,N,SOH/STX: 0x1 received (1), secSize= 128...
1662.396,SSURF,N,EOT: 0x4 received (1), secSize= 128...
1663.246,SSURF,N,Received tcm2mat.174 256 bytes
1663.671,SSURF,N,Transmission succeeded...
1 file transferred.
Succeeded in 11.67 secs
Executing 'strip1a tcm2mat.174'...
Stripped to 162 bytes.
Succeeded in 1.10 secs
Executing 'menu hw/compass/coeff'...
1665.321,HCOMPASS,N,Reading compass coefficients tagged: “SG175 compass cal
1665.421,HCOMPASS,N,Compass 1, SP3003
1665.471,HCOMPASS,N,pitch A,B,C,D: 0.000000 1.000000 0.000000 0.000000
1665.571,HCOMPASS,N,roll A,B,C,D:  0.000000 1.000000 0.000000 0.000000
1665.671,HCOMPASS,N,hard iron P,Q,R: -136.699997 55.900002 -89.500000
1665.771,HCOMPASS,N,soft iron: 1.000000 -0.007000 -0.006000
1665.871,HCOMPASS,N,           0.008000 1.066000 -0.013000
1665.946,HCOMPASS,N,           0.003000 0.016000 1.080000
Succeeded in 1.20 secs
1666.571,SSURF,N,finished commands
1666.621,SSYS,N,Changing capture file
