2473.710,SSURF,N,Executing commands in pdoscmds.bat
Executing 'target SOUTH_174'...
2476.860,SNAV,N,      Target     Latitude  Longitude    Heading Radius Depth Finish Timeout Next target Escp target
2477.035,SNAV,N,      NORTH_174  4744.580  -12224.260  -1.0    200.0m    0  -1  0.0 SOUTH_174 none
2477.160,SNAV,N,  =>  SOUTH_174  4743.030  -12224.640  -1.0    200.0m    0  -1  0.0 NORTH_174 none
Succeeded in 3.43 secs
Executing 'resend_dive /d 9 1'...
2478.985,HCF8,N,sg0009dz.x skipping fragment 0
2479.360,HCF8,N,file 'sg0009dz.x01' opened...
2479.560,HCF8,N,file 'sg0009dz.x01' has 1731 bytes, closed...
Succeeded in 3.24 secs
2480.735,SSURF,N,finished commands
2480.785,SSYS,N,Changing capture file
