23467.461,SSURF,N,Executing commands in pdoscmds.bat
Executing resend_dive /d 585 3
23478.486,HCF8,N,sg0585dz.x skipping fragment 0
23478.561,HCF8,N,sg0585dz.x skipping fragment 1
23478.636,HCF8,N,sg0585dz.x skipping fragment 2
23480.686,HCF8,N,'sg0585dz.x03' opened
23481.061,HCF8,N,'sg0585dz.x03' has 4096 bytes
Succeeded in 19.03 secs
23487.886,SSURF,N,finished commands
23487.936,SSYS,N,Changing capture file
