21064.359,SSURF,N,Executing commands in pdoscmds.bat
Executing resend_dive /l 325 0
21075.609,HCF8,N,'sg0325lz.x00' opened
21076.009,HCF8,N,'sg0325lz.x00' has 4096 bytes
Succeeded in 16.34 secs
21081.659,SSURF,N,finished commands
21081.709,SSYS,N,Changing capture file
