26864.938,SSURF,N,Executing commands in pdoscmds.bat
Executing resend_dive /d 280 0
26876.013,HCF8,N,'sg0280dz.x00' opened
26876.413,HCF8,N,'sg0280dz.x00' has 4096 bytes
Succeeded in 16.18 secs
26882.013,SSURF,N,finished commands
26882.063,SSYS,N,Changing capture file
