23382.044,SSURF,N,Executing commands in pdoscmds.bat
Executing resend_dive /l 396 1
23391.994,HCF8,N,sg0396lz.x skipping fragment 0
23393.844,HCF8,N,'sg0396lz.x01' opened
23394.294,HCF8,N,'sg0396lz.x01' has 4096 bytes
Succeeded in 17.09 secs
23400.194,SSURF,N,finished commands
23400.244,SSYS,N,Changing capture file
