20664.299,SSURF,N,Executing commands in pdoscmds.bat
Executing resend_dive /d 140 0
20674.549,HCF8,N,'sg0140dz.x00' opened
20674.899,HCF8,N,'sg0140dz.x00' has 4096 bytes
Succeeded in 15.11 secs
20680.099,SSURF,N,finished commands
20680.149,SSYS,N,Changing capture file
