23649.235,SSURF,N,Executing commands in pdoscmds.bat
Executing resend_dive /l 575 0
23662.085,HCF8,N,'sg0575lz.x00' opened
23662.485,HCF8,N,'sg0575lz.x00' has 4096 bytes
Succeeded in 18.55 secs
23669.210,SSURF,N,finished commands
23669.260,SSYS,N,Changing capture file
