23155.273,SSURF,N,Executing commands in pdoscmds.bat
Executing resend_dive /l 338 0
23166.598,HCF8,N,'sg0338lz.x00' opened
23166.998,HCF8,N,'sg0338lz.x00' has 4096 bytes
Succeeded in 16.45 secs
23172.698,SSURF,N,finished commands
23172.748,SSYS,N,Changing capture file
