21423.776,SSURF,N,Executing commands in pdoscmds.bat
Executing resend_dive /d 453 3
21434.176,HCF8,N,sg0453dz.x skipping fragment 0
21434.276,HCF8,N,sg0453dz.x skipping fragment 1
21434.351,HCF8,N,sg0453dz.x skipping fragment 2
21436.276,HCF8,N,'sg0453dz.x03' opened
21436.651,HCF8,N,'sg0453dz.x03' has 4096 bytes
Succeeded in 18.05 secs
21443.051,SSURF,N,finished commands
21443.126,SSYS,N,Changing capture file
