29316.498,SSURF,N,Executing commands in pdoscmds.bat
Executing resend_dive /d 155 2
29325.298,HCF8,N,sg0155dz.x skipping fragment 0
29325.373,HCF8,N,sg0155dz.x skipping fragment 1
29327.023,HCF8,N,'sg0155dz.x02' opened
29327.398,HCF8,N,'sg0155dz.x02' has 4096 bytes
Succeeded in 15.39 secs
29332.573,SSURF,N,finished commands
29332.623,SSYS,N,Changing capture file
