29190.285,SSURF,N,Executing commands in pdoscmds.bat
Executing resend_dive /d 183 4
29199.235,HCF8,N,sg0183dz.x skipping fragment 0
29199.310,HCF8,N,sg0183dz.x skipping fragment 1
29199.385,HCF8,N,sg0183dz.x skipping fragment 2
29199.485,HCF8,N,sg0183dz.x skipping fragment 3
29201.160,HCF8,N,'sg0183dz.x04' opened
29201.510,HCF8,N,'sg0183dz.x04' has 4096 bytes
Succeeded in 15.84 secs
29206.835,SSURF,N,finished commands
29206.885,SSYS,N,Changing capture file
