21841.215,SSURF,N,Executing commands in pdoscmds.bat
Executing resend_dive /l 411 0
21853.040,HCF8,N,'sg0411lz.x00' opened
21853.440,HCF8,N,'sg0411lz.x00' has 4096 bytes
Succeeded in 17.12 secs
21859.490,SSURF,N,finished commands
21859.540,SSYS,N,Changing capture file
