24301.326,SSURF,N,Executing commands in pdoscmds.bat
Executing resend_dive /d 690 2
24312.901,HCF8,N,sg0690dz.x skipping fragment 0
24312.976,HCF8,N,sg0690dz.x skipping fragment 1
24315.101,HCF8,N,'sg0690dz.x02' opened
24315.501,HCF8,N,'sg0690dz.x02' has 4096 bytes
Succeeded in 19.84 secs
24322.701,SSURF,N,finished commands
24322.751,SSYS,N,Changing capture file
