22030.408,SSURF,N,Executing commands in pdoscmds.bat
Executing resend_dive /d 140 1
22039.183,HCF8,N,sg0140dz.x skipping fragment 0
22040.808,HCF8,N,'sg0140dz.x01' opened
22041.158,HCF8,N,'sg0140dz.x01' has 4096 bytes
Succeeded in 15.27 secs
22046.333,SSURF,N,finished commands
22046.383,SSYS,N,Changing capture file
