24078.738,SSURF,N,Executing commands in pdoscmds.bat
Executing resend_dive /d 636 2
24090.088,HCF8,N,sg0636dz.x skipping fragment 0
24090.188,HCF8,N,sg0636dz.x skipping fragment 1
24092.238,HCF8,N,'sg0636dz.x02' opened
24092.663,HCF8,N,'sg0636dz.x02' has 4096 bytes
Succeeded in 19.43 secs
24099.663,SSURF,N,finished commands
24099.713,SSYS,N,Changing capture file
