21804.475,SSURF,N,Executing commands in pdoscmds.bat
Executing resend_dive /d 453 1
21814.925,HCF8,N,sg0453dz.x skipping fragment 0
21816.850,HCF8,N,'sg0453dz.x01' opened
21817.225,HCF8,N,'sg0453dz.x01' has 4096 bytes
Succeeded in 17.93 secs
21823.600,SSURF,N,finished commands
21823.650,SSYS,N,Changing capture file
