2367.553,SSURF,N,Executing commands in pdoscmds.bat
Executing 'target CROSSING_174'...
2370.703,SNAV,N,      Target     Latitude  Longitude    Heading Radius Depth Finish Timeout Next target Escp target
2370.878,SNAV,N,  =>  CROSSING_174 4747.500  -12225.370  -1.0    200.0m    0  -1  0.0 SOUTH_174 none
2371.028,SNAV,N,      SOUTH_174  4749.000  -12225.400  -1.0    200.0m    0  -1  0.0 SOUTH_174 none
Succeeded in 3.44 secs
2371.253,SSURF,N,finished commands
2371.303,SSYS,N,Changing capture file
